tPBE(6,6)/6-31g gradient of formaldehyde at the CASSCF(6,6)/6-31g geometry:
C -0.02794131 -0.00000000  0.00000000
O  0.05296810 -0.00000000 -0.00000000
H -0.01251340 -0.00000000 -0.01568556
H -0.01251340  0.00000000  0.01568556

OpenMolcas's opinions (note that there is no way to use the same grid in PySCF and OpenMolcas)
Analytical implementation:
C -0.02790613  0.00000000 -0.00000000
O  0.05293225 -0.00000000  0.00000000
H -0.01251306 -0.00000000 -0.01568837
H -0.01251306 -0.00000000  0.01568837

Numerical algorithm:
C -0.028019    0.000000   -0.000000
O  0.053037   -0.000000    0.000000
H -0.012509   -0.000000   -0.015737
H -0.012509   -0.000000    0.015737
