4    
Iteration 0 Energy -114.29647065
C        0.5340040000    0.0000000000    0.0000000000
O       -0.6761100000    0.0000000000    0.0000000000
H        1.1024300000    0.0000000000    0.9201250000
H        1.1024300000    0.0000000000   -0.9201250000
4    
Iteration 1 Energy -114.29900715
C        0.5260571342   -0.0000000000    0.0046889782
O       -0.7120598627    0.0000000000   -0.0071208835
H        1.1298121037   -0.0000000000    0.9373019544
H        1.1189446249   -0.0000000000   -0.9348700491
4    
Iteration 2 Energy -114.29881091
C        0.5342188156    0.0000001202   -0.0107816816
O       -0.7082940116   -0.0000002152    0.0170135485
H        1.1052971794    0.0000001524    0.9440850192
H        1.1315320167   -0.0000000575   -0.9503168862
4    
Iteration 3 Energy -114.29908777
C        0.5303599988    0.0000000223   -0.0001717336
O       -0.7111392339   -0.0000004412    0.0002369188
H        1.1215574319    0.0000006881    0.9398588264
H        1.1219758032   -0.0000002693   -0.9399240115
4    
Iteration 4 Energy -114.29908884
C        0.5308933416   -0.0000002276   -0.0000370038
O       -0.7110138195   -0.0000001409    0.0000230152
H        1.1213906588    0.0000004452    0.9399181615
H        1.1214838191   -0.0000000767   -0.9399041729
4    
Iteration 5 Energy -114.29908927
C        0.5311355337    0.0000011021   -0.0000024687
O       -0.7109829568   -0.0000005895    0.0000043906
H        1.1213023170    0.0000000274    0.9399378462
H        1.1212991061   -0.0000005400   -0.9399397680
4    
Iteration 6 Energy -114.29908898
C        0.5311323888   -0.0000030876   -0.0000002206
O       -0.7109831529    0.0000006208    0.0000016102
H        1.1213037543    0.0000018809    0.9399380775
H        1.1213010100    0.0000005859   -0.9399394670
